LAMMPS data file. CGCMM style. atom_style full generated by VMD/TopoTools v1.7 on Wed May 22 16:30:28 EDT 2019

6400 atoms
8 atom types
4848 bonds
4 bond types
8160 angles
5 angle types
6144 dihedrals
2 dihedral types

-14.65 14.65 xlo xhi
-15.22 15.22 ylo yhi
-228.68 305.68 zlo zhi

Masses

1 32.06
2 16
3 12.01
4 1.008
5 6.941
6 31
7 19
8 196.966553

Pair Coeffs # lj/charmm/coul/long

1 0.35 3.564 0.35 3.564
2 0.12 3.029 0.12 3.029
3 0.078 3.635 0.078 3.635
4 0.024 2.388 0.024 2.388
5 0.10314 1.4424 0.10314 1.4424
6 0.13169 3.695 0.13169 3.695
7 0.028716 2.9343 0.028716 2.9343
8 0.11472 3.80 0.11472 3.80

Bond Coeffs # harmonic

1 540 1.53
2 240 1.8
3 322 1.11
4 370.8 1.606

Angle Coeffs # harmonic

1 46.1 111.3
2 79 106.75
3 34 95
4 35.5 108.4
5 139.4 90

Dihedral Coeffs # charmm

1 0.2 3 0 0
2 0.2 3 0 0

 Atoms # full

1 1 1 0.312000 -4.652110 -5.686310 42.530998 # 1 
2 1 2 -0.556000 -5.320640 -4.329910 42.208801 # 2 
3 1 3 -0.148000 -5.273960 -6.209300 44.055599 # 3 
4 1 4 0.090000 -5.150320 -5.363840 44.762901 # 4 
5 1 4 0.090000 -6.332990 -6.357520 43.959099 # 4 
6 1 4 0.090000 -4.797540 -7.004060 44.566002 # 4 
7 1 3 -0.148000 -3.208160 -5.651750 43.499001 # 3 
8 1 4 0.090000 -3.243860 -6.142620 44.491299 # 4 
9 1 4 0.090000 -2.860440 -4.631290 43.690399 # 4 
10 1 4 0.090000 -2.400780 -6.122460 42.823101 # 4 
11 2 1 0.312000 -7.069940 -6.932290 12.230800 # 1 
12 2 2 -0.556000 -7.625800 -5.584780 12.789100 # 2 
13 2 3 -0.148000 -7.975310 -7.504210 10.785200 # 3 
14 2 4 0.090000 -8.465320 -6.528360 10.332200 # 4 
15 2 4 0.090000 -8.922060 -8.134820 10.995500 # 4 
16 2 4 0.090000 -7.287660 -8.018140 10.008200 # 4 
17 2 3 -0.148000 -6.638640 -8.288030 13.366700 # 3 
18 2 4 0.090000 -6.404580 -7.813670 14.382600 # 4 
19 2 4 0.090000 -7.380450 -9.049210 13.649200 # 4 
20 2 4 0.090000 -5.682690 -8.813520 12.991100 # 4 
21 3 1 0.312000 -6.762930 -9.467680 37.486900 # 1 
22 3 2 -0.556000 -5.945740 -8.208550 37.407700 # 2 
23 3 3 -0.148000 -5.759440 -10.872300 37.627602 # 3 
24 3 4 0.090000 -6.339850 -11.719300 37.810501 # 4 
25 3 4 0.090000 -5.087780 -10.690200 38.576698 # 4 
26 3 4 0.090000 -5.056390 -10.961000 36.769001 # 4 
27 3 3 -0.148000 -7.343310 -9.772290 39.107899 # 3 
28 3 4 0.090000 -6.629690 -9.839980 40.022301 # 4 
29 3 4 0.090000 -7.866080 -10.758400 39.165901 # 4 
30 3 4 0.090000 -7.956240 -8.841330 39.357700 # 4 
31 4 1 0.312000 -3.825430 4.294220 4.098570 # 1 
32 4 2 -0.556000 -3.712670 4.893190 5.478130 # 2 
33 4 3 -0.148000 -4.658780 2.746520 4.278370 # 3 
34 4 4 0.090000 -5.696360 3.014780 4.409540 # 4 
35 4 4 0.090000 -4.462180 2.263550 3.312100 # 4 
36 4 4 0.090000 -4.435900 1.999320 5.004050 # 4 
37 4 3 -0.148000 -2.228280 3.714390 3.636780 # 3 
38 4 4 0.090000 -2.254590 2.748900 3.113210 # 4 
39 4 4 0.090000 -1.540060 3.764830 4.409170 # 4 
40 4 4 0.090000 -1.881320 4.374760 2.833980 # 4 
41 5 1 0.312000 5.864280 1.254450 62.773701 # 1 
42 5 2 -0.556000 5.597780 1.734260 64.213997 # 2 
43 5 3 -0.148000 6.725140 2.526050 61.942699 # 3 
44 5 4 0.090000 7.400980 2.218070 61.165501 # 4 
45 5 4 0.090000 7.272490 3.183770 62.649399 # 4 
46 5 4 0.090000 5.879310 3.104120 61.423000 # 4 
47 5 3 -0.148000 7.373490 0.421022 63.054501 # 3 
48 5 4 0.090000 7.853460 0.119068 62.005100 # 4 
49 5 4 0.090000 8.060900 1.056720 63.717800 # 4 
50 5 4 0.090000 7.144560 -0.534799 63.559601 # 4 
51 6 1 0.312000 -11.883900 -6.873160 62.373600 # 1 
52 6 2 -0.556000 -12.044600 -6.036470 63.638199 # 2 
53 6 3 -0.148000 -12.746700 -5.721100 61.240200 # 3 
54 6 4 0.090000 -13.462400 -6.226180 60.511002 # 4 
55 6 4 0.090000 -12.065500 -5.090080 60.672401 # 4 
56 6 4 0.090000 -13.371700 -5.014430 61.889198 # 4 
57 6 3 -0.148000 -10.271500 -6.529600 61.901001 # 3 
58 6 4 0.090000 -9.575870 -6.895860 62.676498 # 4 
59 6 4 0.090000 -10.126400 -7.123880 61.028900 # 4 
60 6 4 0.090000 -10.105900 -5.523790 61.778198 # 4 
61 7 1 0.312000 1.935970 4.291460 2.385110 # 1 
62 7 2 -0.556000 2.828470 3.098840 2.499490 # 2 
63 7 3 -0.148000 2.930740 5.545170 1.830002 # 3 
64 7 4 0.090000 2.568320 6.567090 2.144960 # 4 
65 7 4 0.090000 2.885110 5.625570 0.742897 # 4 
66 7 4 0.090000 3.920190 5.229160 2.194840 # 4 
67 7 3 -0.148000 1.585740 4.592560 4.104240 # 3 
68 7 4 0.090000 2.428530 4.985600 4.648890 # 4 
69 7 4 0.090000 1.360180 3.614130 4.673180 # 4 
70 7 4 0.090000 0.864889 5.358720 4.395470 # 4 
71 8 1 0.312000 -6.718480 -0.974029 33.083599 # 1 
72 8 2 -0.556000 -5.979760 -1.129350 31.828699 # 2 
73 8 3 -0.148000 -8.332260 -1.861290 32.993599 # 3 
74 8 4 0.090000 -8.361540 -2.711510 33.615601 # 4 
75 8 4 0.090000 -9.271990 -1.183040 33.198200 # 4 
76 8 4 0.090000 -8.370490 -2.307120 32.004501 # 4 
77 8 3 -0.148000 -6.140590 -2.554500 33.918598 # 3 
78 8 4 0.090000 -5.110130 -2.435080 34.157501 # 4 
79 8 4 0.090000 -6.420780 -3.374000 33.303799 # 4 
80 8 4 0.090000 -6.504460 -2.739400 34.980499 # 4 
81 9 1 0.312000 -9.167350 10.435600 19.799200 # 1 
82 9 2 -0.556000 -8.660180 9.487410 18.803400 # 2 
83 9 3 -0.148000 -10.867700 10.819200 19.322901 # 3 
84 9 4 0.090000 -11.383600 10.187600 18.661699 # 4 
85 9 4 0.090000 -11.605600 11.076500 20.152100 # 4 
86 9 4 0.090000 -10.842800 11.654300 18.659201 # 4 
87 9 3 -0.148000 -9.777130 9.594020 21.251900 # 3 
88 9 4 0.090000 -9.967310 8.501670 21.003700 # 4 
89 9 4 0.090000 -9.240370 9.860680 22.230400 # 4 
90 9 4 0.090000 -10.832200 9.826020 21.397699 # 4 
91 10 1 0.312000 -10.365000 -9.634210 39.970299 # 1 
92 10 2 -0.556000 -10.214400 -8.927380 38.659599 # 2 
93 10 3 -0.148000 -12.129400 -10.006100 40.159901 # 3 
94 10 4 0.090000 -12.743300 -9.056260 40.070400 # 4 
95 10 4 0.090000 -12.468200 -10.715400 39.327801 # 4 
96 10 4 0.090000 -12.378500 -10.410500 41.150398 # 4 
97 10 3 -0.148000 -10.277000 -11.245900 39.565201 # 3 
98 10 4 0.090000 -10.725300 -11.267200 38.568600 # 4 
99 10 4 0.090000 -9.292870 -11.700500 39.443199 # 4 
100 10 4 0.090000 -10.846200 -11.848500 40.258202 # 4 
101 11 1 0.312000 9.981540 -8.352880 26.618500 # 1 
102 11 2 -0.556000 10.457200 -6.928760 26.955999 # 2 
103 11 3 -0.148000 11.517000 -9.236750 26.439699 # 3 
104 11 4 0.090000 11.386900 -10.205900 25.731501 # 4 
105 11 4 0.090000 12.350100 -8.604540 26.039499 # 4 
106 11 4 0.090000 12.073600 -9.642520 27.381201 # 4 
107 11 3 -0.148000 9.670140 -8.536640 24.939100 # 3 
108 11 4 0.090000 8.576950 -8.619380 24.782700 # 4 
109 11 4 0.090000 10.152100 -9.505320 24.568701 # 4 
110 11 4 0.090000 10.121700 -7.643770 24.433300 # 4 
111 12 1 0.312000 10.401600 8.044490 14.756600 # 1 
112 12 2 -0.556000 9.338970 7.937170 13.658900 # 2 
113 12 3 -0.148000 11.859800 7.154620 14.284200 # 3 
114 12 4 0.090000 12.153700 6.481680 15.082600 # 4 
115 12 4 0.090000 12.719700 7.904150 14.252700 # 4 
116 12 4 0.090000 11.663600 6.731830 13.304400 # 4 
117 12 3 -0.148000 9.817740 6.395240 15.335500 # 3 
118 12 4 0.090000 8.733930 6.285500 15.057100 # 4 
119 12 4 0.090000 10.003000 6.457130 16.396000 # 4 
120 12 4 0.090000 10.323400 5.676440 14.910700 # 4 
121 13 1 0.312000 6.737930 7.382290 16.695101 # 1 
122 13 2 -0.556000 6.863990 7.885120 15.284300 # 2 
123 13 3 -0.148000 5.518400 8.342010 17.579901 # 3 
124 13 4 0.090000 5.492860 8.113530 18.665300 # 4 
125 13 4 0.090000 4.474600 8.140270 17.096300 # 4 
126 13 4 0.090000 5.815420 9.388650 17.416300 # 4 
127 13 3 -0.148000 5.942270 5.807560 16.684401 # 3 
128 13 4 0.090000 5.040640 5.866490 15.998100 # 4 
129 13 4 0.090000 6.648900 5.059160 16.373800 # 4 
130 13 4 0.090000 5.664620 5.346500 17.615299 # 4 
131 14 1 0.312000 -5.295590 -5.454120 21.615200 # 1 
132 14 2 -0.556000 -3.824000 -5.303130 21.324301 # 2 
133 14 3 -0.148000 -5.639910 -7.113540 21.761999 # 3 
134 14 4 0.090000 -6.492330 -7.053660 22.291201 # 4 
135 14 4 0.090000 -5.815500 -7.419120 20.757401 # 4 
136 14 4 0.090000 -4.914340 -7.666840 22.388100 # 4 
137 14 3 -0.148000 -5.523600 -5.243810 23.343700 # 3 
138 14 4 0.090000 -5.095870 -6.052410 23.968800 # 4 
139 14 4 0.090000 -6.640730 -5.221070 23.492300 # 4 
140 14 4 0.090000 -5.230620 -4.337090 23.732201 # 4 
141 15 1 0.312000 -0.903385 -8.647460 72.693901 # 1 
142 15 2 -0.556000 -1.695280 -9.078790 73.898003 # 2 
143 15 3 -0.148000 -0.013436 -7.220700 73.298203 # 3 
144 15 4 0.090000 -0.204122 -7.220760 74.320000 # 4 
145 15 4 0.090000 1.024230 -7.192580 73.054497 # 4 
146 15 4 0.090000 -0.570733 -6.433810 72.957100 # 4 
147 15 3 -0.148000 0.119096 -10.147100 72.338097 # 3 
148 15 4 0.090000 1.213410 -9.671780 72.353401 # 4 
149 15 4 0.090000 -0.156945 -10.916700 73.069099 # 4 
150 15 4 0.090000 0.074504 -10.252200 71.222099 # 4 
151 16 1 0.312000 9.889620 -7.883200 7.211710 # 1 
152 16 2 -0.556000 9.763620 -8.161920 8.677640 # 2 
153 16 3 -0.148000 8.492630 -8.425420 6.400110 # 3 
154 16 4 0.090000 7.684360 -8.984150 7.012020 # 4 
155 16 4 0.090000 8.564050 -8.986160 5.454250 # 4 
156 16 4 0.090000 7.883560 -7.561130 6.035810 # 4 
157 16 3 -0.148000 9.556820 -6.152280 6.949500 # 3 
158 16 4 0.090000 9.940900 -5.932560 5.954340 # 4 
159 16 4 0.090000 8.572200 -5.883860 6.962830 # 4 
160 16 4 0.090000 10.118000 -5.441330 7.556160 # 4 
161 17 1 0.312000 -1.445000 7.168480 42.768002 # 1 
162 17 2 -0.556000 -2.689080 6.263330 43.131001 # 2 
163 17 3 -0.148000 -0.881482 8.183470 44.113499 # 3 
164 17 4 0.090000 -0.438838 9.188060 43.831799 # 4 
165 17 4 0.090000 -1.697340 8.270560 44.836899 # 4 
166 17 4 0.090000 -0.069904 7.664790 44.513802 # 4 
167 17 3 -0.148000 -2.066940 8.539770 41.858898 # 3 
168 17 4 0.090000 -2.282920 9.414180 42.523499 # 4 
169 17 4 0.090000 -2.905310 8.332640 41.230801 # 4 
170 17 4 0.090000 -1.176820 8.779250 41.281898 # 4 
171 18 1 0.312000 -3.998680 8.454020 14.005600 # 1 
172 18 2 -0.556000 -5.105990 9.379920 13.690500 # 2 
173 18 3 -0.148000 -3.215020 8.340420 12.485800 # 3 
174 18 4 0.090000 -2.075380 8.042180 12.580600 # 4 
175 18 4 0.090000 -3.282070 9.307290 11.908800 # 4 
176 18 4 0.090000 -3.778900 7.505810 11.875100 # 4 
177 18 3 -0.148000 -2.747610 9.384020 14.649700 # 3 
178 18 4 0.090000 -3.315770 10.079700 15.435900 # 4 
179 18 4 0.090000 -1.915410 8.738410 15.004500 # 4 
180 18 4 0.090000 -2.191850 9.968720 13.951300 # 4 
181 19 1 0.312000 -1.250870 6.924120 37.270599 # 1 
182 19 2 -0.556000 -0.654729 5.580590 37.487900 # 2 
183 19 3 -0.148000 -3.030630 6.714280 37.154202 # 3 
184 19 4 0.090000 -3.187500 5.826040 37.680500 # 4 
185 19 4 0.090000 -3.532440 7.596510 37.524200 # 4 
186 19 4 0.090000 -3.448840 6.624520 36.166100 # 4 
187 19 3 -0.148000 -1.683700 7.693850 38.849602 # 3 
188 19 4 0.090000 -2.751870 7.468570 39.145599 # 4 
189 19 4 0.090000 -1.704300 8.804400 38.557999 # 4 
190 19 4 0.090000 -0.926338 7.593020 39.615501 # 4 
191 20 1 0.312000 -4.162720 10.735800 9.486670 # 1 
192 20 2 -0.556000 -2.745710 10.414000 9.863590 # 2 
193 20 3 -0.148000 -5.137560 9.436230 10.146000 # 3 
194 20 4 0.090000 -6.157040 9.382310 9.684260 # 4 
195 20 4 0.090000 -5.631740 9.581980 11.145400 # 4 
196 20 4 0.090000 -4.712830 8.403240 10.207200 # 4 
197 20 3 -0.148000 -4.409880 10.544300 7.715630 # 3 
198 20 4 0.090000 -4.872160 11.351200 7.174820 # 4 
199 20 4 0.090000 -3.406670 10.178800 7.170910 # 4 
200 20 4 0.090000 -4.991390 9.711180 7.639870 # 4 
201 21 1 0.312000 5.854840 -11.401100 48.422600 # 1 
202 21 2 -0.556000 4.890360 -12.559000 48.275799 # 2 
203 21 3 -0.148000 6.936270 -11.581500 49.869202 # 3 
204 21 4 0.090000 6.566210 -10.930400 50.730499 # 4 
205 21 4 0.090000 7.115490 -12.568300 50.269100 # 4 
206 21 4 0.090000 7.916320 -11.155700 49.470299 # 4 
207 21 3 -0.148000 7.104420 -11.816100 47.359600 # 3 
208 21 4 0.090000 7.040040 -11.351700 46.479401 # 4 
209 21 4 0.090000 8.136260 -11.785800 47.695400 # 4 
210 21 4 0.090000 6.942920 -12.800200 47.004501 # 4 
211 22 1 0.312000 2.581290 -1.949700 32.216099 # 1 
212 22 2 -0.556000 3.401870 -2.196510 30.960400 # 2 
213 22 3 -0.148000 1.141570 -2.723280 31.800600 # 3 
214 22 4 0.090000 0.525469 -3.112930 32.639099 # 4 
215 22 4 0.090000 1.506200 -3.645570 31.335199 # 4 
216 22 4 0.090000 0.590295 -2.192990 31.000700 # 4 
217 22 3 -0.148000 2.936840 -3.226420 33.413101 # 3 
218 22 4 0.090000 2.341250 -3.251110 34.285801 # 4 
219 22 4 0.090000 2.856890 -4.233010 32.759800 # 4 
220 22 4 0.090000 4.028910 -3.159800 33.756699 # 4 
221 23 1 0.312000 8.225630 3.971520 45.998100 # 1 
222 23 2 -0.556000 9.538330 4.552270 46.240700 # 2 
223 23 3 -0.148000 7.931100 3.146360 47.422298 # 3 
224 23 4 0.090000 7.945820 3.786040 48.355400 # 4 
225 23 4 0.090000 8.658200 2.267190 47.555199 # 4 
226 23 4 0.090000 6.911000 2.750050 47.261299 # 4 
227 23 3 -0.148000 7.019270 5.230680 46.477299 # 3 
228 23 4 0.090000 7.495250 6.119480 46.964600 # 4 
229 23 4 0.090000 6.278290 4.771410 47.239498 # 4 
230 23 4 0.090000 6.316670 5.482620 45.656601 # 4 
231 24 1 0.312000 3.175610 6.436490 19.150499 # 1 
232 24 2 -0.556000 3.498490 6.032670 17.775400 # 2 
233 24 3 -0.148000 4.399170 6.539250 20.515100 # 3 
234 24 4 0.090000 5.331560 7.011460 20.287800 # 4 
235 24 4 0.090000 4.876490 5.546700 20.774799 # 4 
236 24 4 0.090000 3.909050 7.019600 21.459999 # 4 
237 24 3 -0.148000 2.432400 8.068850 19.013901 # 3 
238 24 4 0.090000 2.136530 8.403850 20.083300 # 4 
239 24 4 0.090000 1.533940 8.230610 18.318300 # 4 
240 24 4 0.090000 3.220650 8.796400 18.829700 # 4 
241 25 1 0.312000 -8.770000 7.195260 7.754040 # 1 
242 25 2 -0.556000 -8.297180 6.532890 9.051920 # 2 
243 25 3 -0.148000 -10.464600 7.520960 7.836740 # 3 
244 25 4 0.090000 -10.789800 8.279680 8.584700 # 4 
245 25 4 0.090000 -11.067000 6.619450 8.089580 # 4 
246 25 4 0.090000 -10.835300 7.971170 6.890710 # 4 
247 25 3 -0.148000 -8.386490 8.822040 8.009770 # 3 
248 25 4 0.090000 -9.003870 9.172310 8.839310 # 4 
249 25 4 0.090000 -7.286860 8.853170 8.236300 # 4 
250 25 4 0.090000 -8.520780 9.458570 7.113310 # 4 
251 26 1 0.312000 10.055600 1.994390 30.027100 # 1 
252 26 2 -0.556000 11.187500 2.110560 30.986700 # 2 
253 26 3 -0.148000 10.469600 0.602764 29.210600 # 3 
254 26 4 0.090000 10.123200 -0.276788 29.908899 # 4 
255 26 4 0.090000 9.874660 0.488751 28.254400 # 4 
256 26 4 0.090000 11.544200 0.488768 29.021400 # 4 
257 26 3 -0.148000 10.623700 2.800150 28.548300 # 3 
258 26 4 0.090000 11.718200 2.807660 28.192301 # 4 
259 26 4 0.090000 10.094600 2.338920 27.712601 # 4 
260 26 4 0.090000 10.100000 3.789480 28.614799 # 4 
261 27 1 0.312000 4.184930 -11.942800 56.918301 # 1 
262 27 2 -0.556000 3.195990 -11.592800 57.979599 # 2 
263 27 3 -0.148000 4.581500 -10.341500 56.421001 # 3 
264 27 4 0.090000 5.499720 -9.981580 56.886902 # 4 
265 27 4 0.090000 3.924410 -9.459210 56.585499 # 4 
266 27 4 0.090000 4.959070 -10.250400 55.374802 # 4 
267 27 3 -0.148000 3.072680 -12.437500 55.563599 # 3 
268 27 4 0.090000 3.602200 -12.349800 54.613899 # 4 
269 27 4 0.090000 2.328630 -11.641300 55.790401 # 4 
270 27 4 0.090000 2.921890 -13.458100 55.608799 # 4 
271 28 1 0.312000 10.745800 -3.582350 73.014397 # 1 
272 28 2 -0.556000 11.960300 -4.399480 72.605003 # 2 
273 28 3 -0.148000 9.486320 -3.861990 71.667297 # 3 
274 28 4 0.090000 8.497450 -3.607880 71.998596 # 4 
275 28 4 0.090000 9.635560 -3.275150 70.796799 # 4 
276 28 4 0.090000 9.236670 -4.818810 71.478401 # 4 
277 28 3 -0.148000 11.068900 -1.954660 72.334999 # 3 
278 28 4 0.090000 11.413200 -2.093160 71.336800 # 4 
279 28 4 0.090000 11.883300 -1.375080 72.758598 # 4 
280 28 4 0.090000 10.149300 -1.384740 72.367798 # 4 
281 29 1 0.312000 10.840500 -10.662200 68.307999 # 1 
282 29 2 -0.556000 10.814300 -9.501410 69.396301 # 2 
283 29 3 -0.148000 9.756640 -11.867400 68.967201 # 3 
284 29 4 0.090000 10.213800 -12.098500 70.022003 # 4 
285 29 4 0.090000 8.680020 -11.803200 69.044197 # 4 
286 29 4 0.090000 9.915910 -12.875900 68.595001 # 4 
287 29 3 -0.148000 12.279700 -11.719300 68.417999 # 3 
288 29 4 0.090000 12.287700 -12.564500 67.753098 # 4 
289 29 4 0.090000 13.120600 -11.106900 68.199097 # 4 
290 29 4 0.090000 12.345800 -12.056200 69.417801 # 4 
291 30 1 0.312000 -0.830424 6.533900 63.154099 # 1 
292 30 2 -0.556000 0.077913 5.588130 63.861401 # 2 
293 30 3 -0.148000 -1.995050 7.257830 64.306801 # 3 
294 30 4 0.090000 -2.497590 8.083590 63.744598 # 4 
295 30 4 0.090000 -1.443370 7.605140 65.168297 # 4 
296 30 4 0.090000 -2.639410 6.426090 64.540398 # 4 
297 30 3 -0.148000 0.137455 7.928840 62.645901 # 3 
298 30 4 0.090000 1.015660 7.735070 62.054001 # 4 
299 30 4 0.090000 0.615541 8.180460 63.646801 # 4 
300 30 4 0.090000 -0.317364 8.843460 62.412102 # 4 
301 31 1 0.312000 -7.125530 -7.509800 25.855900 # 1 
302 31 2 -0.556000 -5.602300 -7.277690 25.604500 # 2 
303 31 3 -0.148000 -7.831250 -7.708620 24.323400 # 3 
304 31 4 0.090000 -8.025100 -6.733660 23.829201 # 4 
305 31 4 0.090000 -8.837130 -8.113480 24.552799 # 4 
306 31 4 0.090000 -7.272680 -8.475830 23.713301 # 4 
307 31 3 -0.148000 -7.750910 -5.951050 26.298100 # 3 
308 31 4 0.090000 -8.912440 -5.866710 26.141399 # 4 
309 31 4 0.090000 -7.602380 -5.635510 27.339600 # 4 
310 31 4 0.090000 -7.094230 -5.316730 25.719700 # 4 
311 32 1 0.312000 -1.751960 -8.568370 45.080601 # 1 
312 32 2 -0.556000 -3.106730 -8.269950 44.373901 # 2 
313 32 3 -0.148000 -2.264740 -8.462910 46.742401 # 3 
314 32 4 0.090000 -3.202230 -7.954150 46.761398 # 4 
315 32 4 0.090000 -1.593880 -8.366710 47.602402 # 4 
316 32 4 0.090000 -2.540050 -9.450880 47.004601 # 4 
317 32 3 -0.148000 -0.724744 -7.053130 45.115101 # 3 
318 32 4 0.090000 -0.931584 -6.303370 44.304600 # 4 
319 32 4 0.090000 -1.101070 -6.500360 45.983501 # 4 
320 32 4 0.090000 0.385386 -7.232690 45.123199 # 4 
321 33 1 0.312000 2.170960 -1.735690 52.499401 # 1 
322 33 2 -0.556000 0.687673 -2.052430 52.542400 # 2 
323 33 3 -0.148000 2.760350 -2.092900 50.853401 # 3 
324 33 4 0.090000 2.174400 -1.399400 50.236401 # 4 
325 33 4 0.090000 2.477050 -2.956500 50.480999 # 4 
326 33 4 0.090000 3.916350 -1.933750 50.740299 # 4 
327 33 3 -0.148000 2.105070 -0.074332 51.843899 # 3 
328 33 4 0.090000 2.954800 0.345312 51.358601 # 4 
329 33 4 0.090000 1.142880 0.044134 51.215801 # 4 
330 33 4 0.090000 2.056280 0.735612 52.639599 # 4 
331 34 1 0.312000 -5.769060 4.828410 24.686199 # 1 
332 34 2 -0.556000 -4.860520 4.214510 25.753799 # 2 
333 34 3 -0.148000 -7.371520 4.009260 24.524700 # 3 
334 34 4 0.090000 -7.886430 3.668190 25.454300 # 4 
335 34 4 0.090000 -8.113580 4.516600 23.916201 # 4 
336 34 4 0.090000 -7.197420 3.064390 23.970900 # 4 
337 34 3 -0.148000 -6.923180 5.788990 25.645901 # 3 
338 34 4 0.090000 -7.257110 5.319990 26.611200 # 4 
339 34 4 0.090000 -6.377150 6.681070 26.031500 # 4 
340 34 4 0.090000 -7.879330 5.969590 25.069700 # 4 
341 35 1 0.312000 -7.749310 -10.625900 26.344000 # 1 
342 35 2 -0.556000 -6.869210 -11.433200 25.470600 # 2 
343 35 3 -0.148000 -9.270940 -10.598100 25.585699 # 3 
344 35 4 0.090000 -9.377660 -11.625600 25.176100 # 4 
345 35 4 0.090000 -9.176380 -9.947350 24.659901 # 4 
346 35 4 0.090000 -10.115600 -10.356300 26.205601 # 4 
347 35 3 -0.148000 -8.548440 -11.718500 27.573000 # 3 
348 35 4 0.090000 -7.835050 -12.030400 28.346701 # 4 
349 35 4 0.090000 -9.400980 -11.094400 28.092800 # 4 
350 35 4 0.090000 -8.877110 -12.733100 27.268999 # 4 
351 36 1 0.312000 -9.278380 7.068560 59.294998 # 1 
352 36 2 -0.556000 -8.549300 7.147800 57.997799 # 2 
353 36 3 -0.148000 -10.230300 5.689780 59.050999 # 3 
354 36 4 0.090000 -10.782700 5.653110 58.060501 # 4 
355 36 4 0.090000 -9.623150 4.749930 59.089199 # 4 
356 36 4 0.090000 -11.015300 5.638480 59.803799 # 4 
357 36 3 -0.148000 -10.437400 8.333770 59.365700 # 3 
358 36 4 0.090000 -10.865600 8.313370 60.371799 # 4 
359 36 4 0.090000 -9.997990 9.354820 59.431400 # 4 
360 36 4 0.090000 -11.196400 7.922730 58.626301 # 4 
361 37 1 0.312000 10.322500 -7.819880 66.981102 # 1 
362 37 2 -0.556000 11.245300 -6.775840 66.362602 # 2 
363 37 3 -0.148000 9.454220 -6.999000 68.226097 # 3 
364 37 4 0.090000 9.773280 -5.998750 68.045502 # 4 
365 37 4 0.090000 8.392420 -7.261310 67.982498 # 4 
366 37 4 0.090000 9.742370 -7.451380 69.151299 # 4 
367 37 3 -0.148000 8.795410 -7.924800 66.153297 # 3 
368 37 4 0.090000 8.837650 -8.504590 65.248497 # 4 
369 37 4 0.090000 8.602510 -6.967540 65.927498 # 4 
370 37 4 0.090000 8.011280 -8.516250 66.695099 # 4 
371 38 1 0.312000 -5.291340 -2.110550 66.113701 # 1 
372 38 2 -0.556000 -3.789190 -1.929960 65.784103 # 2 
373 38 3 -0.148000 -5.789910 -0.618022 66.797798 # 3 
374 38 4 0.090000 -6.941310 -0.528335 66.683601 # 4 
375 38 4 0.090000 -5.695900 -0.731382 67.861603 # 4 
376 38 4 0.090000 -5.217800 0.169928 66.460403 # 4 
377 38 3 -0.148000 -6.096010 -1.746130 64.698700 # 3 
378 38 4 0.090000 -7.114210 -2.196720 64.672203 # 4 
379 38 4 0.090000 -5.587380 -2.150100 63.847198 # 4 
380 38 4 0.090000 -6.045500 -0.687253 64.650398 # 4 
381 39 1 0.312000 8.150520 7.603660 33.634102 # 1 
382 39 2 -0.556000 6.690060 7.702540 34.069099 # 2 
383 39 3 -0.148000 8.588070 5.935630 34.130901 # 3 
384 39 4 0.090000 8.780620 5.853950 35.098999 # 4 
385 39 4 0.090000 9.632080 5.873480 33.745998 # 4 
386 39 4 0.090000 8.124370 5.076770 33.693699 # 4 
387 39 3 -0.148000 9.026350 7.932520 34.975700 # 3 
388 39 4 0.090000 10.063900 7.616520 34.845299 # 4 
389 39 4 0.090000 9.007670 9.042340 35.103199 # 4 
390 39 4 0.090000 8.399020 7.553120 35.871601 # 4 
391 40 1 0.312000 -7.889510 -6.516680 51.153301 # 1 
392 40 2 -0.556000 -7.031730 -5.367490 50.656399 # 2 
393 40 3 -0.148000 -7.105920 -6.997980 52.627399 # 3 
394 40 4 0.090000 -7.982750 -7.322250 53.157398 # 4 
395 40 4 0.090000 -6.334460 -7.748060 52.470798 # 4 
396 40 4 0.090000 -6.590300 -6.319900 53.243000 # 4 
397 40 3 -0.148000 -6.780380 -7.549560 50.375000 # 3 
398 40 4 0.090000 -6.895140 -8.541230 50.753201 # 4 
399 40 4 0.090000 -5.709490 -7.473160 50.688499 # 4 
400 40 4 0.090000 -6.930220 -7.505260 49.333099 # 4 
401 41 1 0.312000 2.063580 8.868900 4.078740 # 1 
402 41 2 -0.556000 2.099730 7.596740 4.801560 # 2 
403 41 3 -0.148000 2.756760 10.133200 5.296000 # 3 
404 41 4 0.090000 2.319330 11.164900 5.086130 # 4 
405 41 4 0.090000 2.602310 10.052100 6.410470 # 4 
406 41 4 0.090000 3.860940 10.136900 5.067390 # 4 
407 41 3 -0.148000 3.371230 9.064660 2.794010 # 3 
408 41 4 0.090000 2.965590 8.704010 1.882103 # 4 
409 41 4 0.090000 4.276990 8.385440 3.002140 # 4 
410 41 4 0.090000 3.612890 10.116300 2.646710 # 4 
411 42 1 0.312000 7.199820 -10.477300 16.641500 # 1 
412 42 2 -0.556000 8.628600 -10.516900 15.963300 # 2 
413 42 3 -0.148000 6.156450 -10.072700 15.291100 # 3 
414 42 4 0.090000 6.365010 -9.084380 14.938700 # 4 
415 42 4 0.090000 5.144330 -9.979600 15.536000 # 4 
416 42 4 0.090000 6.340110 -10.877700 14.631500 # 4 
417 42 3 -0.148000 6.361430 -12.010900 16.784100 # 3 
418 42 4 0.090000 5.314960 -11.802500 17.040199 # 4 
419 42 4 0.090000 6.254200 -12.579800 15.850200 # 4 
420 42 4 0.090000 6.785920 -12.536200 17.624500 # 4 
421 43 1 0.312000 6.233770 7.812290 43.222401 # 1 
422 43 2 -0.556000 5.634330 6.642540 44.014599 # 2 
423 43 3 -0.148000 5.620090 7.432710 41.588699 # 3 
424 43 4 0.090000 6.198610 7.881740 40.747501 # 4 
425 43 4 0.090000 5.504300 6.478730 41.474400 # 4 
426 43 4 0.090000 4.634750 7.887170 41.520302 # 4 
427 43 3 -0.148000 7.807760 7.573170 42.486000 # 3 
428 43 4 0.090000 8.309900 8.495390 42.220001 # 4 
429 43 4 0.090000 7.624220 6.768790 41.683300 # 4 
430 43 4 0.090000 8.526520 7.046330 43.136600 # 4 
431 44 1 0.312000 -10.148700 -4.363370 9.611280 # 1 
432 44 2 -0.556000 -8.832890 -4.270070 8.883710 # 2 
433 44 3 -0.148000 -9.966910 -3.532630 11.141100 # 3 
434 44 4 0.090000 -9.388410 -4.147140 11.807800 # 4 
435 44 4 0.090000 -9.586430 -2.430280 11.138100 # 4 
436 44 4 0.090000 -10.901600 -3.425440 11.581300 # 4 
437 44 3 -0.148000 -11.228400 -3.145400 8.891870 # 3 
438 44 4 0.090000 -11.994500 -2.690540 9.596040 # 4 
439 44 4 0.090000 -11.681100 -3.618980 8.005550 # 4 
440 44 4 0.090000 -10.653200 -2.240800 8.746180 # 4 
441 45 1 0.312000 -10.844400 -5.182550 17.781601 # 1 
442 45 2 -0.556000 -10.875700 -5.105180 16.286400 # 2 
443 45 3 -0.148000 -9.789700 -4.050210 18.423901 # 3 
444 45 4 0.090000 -9.231530 -4.461990 19.233601 # 4 
445 45 4 0.090000 -9.192880 -3.518770 17.722000 # 4 
446 45 4 0.090000 -10.393900 -3.410610 18.939800 # 4 
447 45 3 -0.148000 -12.395700 -4.723640 18.305000 # 3 
448 45 4 0.090000 -13.160500 -4.814200 17.549700 # 4 
449 45 4 0.090000 -12.347200 -3.638280 18.300699 # 4 
450 45 4 0.090000 -12.528400 -5.044720 19.334000 # 4 
451 46 1 0.312000 -4.680150 -11.185500 14.246800 # 1 
452 46 2 -0.556000 -4.849780 -12.044200 15.502500 # 2 
453 46 3 -0.148000 -2.897610 -10.846100 14.134200 # 3 
454 46 4 0.090000 -2.426210 -11.917000 14.114100 # 4 
455 46 4 0.090000 -2.442710 -10.336300 14.973800 # 4 
456 46 4 0.090000 -2.589600 -10.180200 13.240900 # 4 
457 46 3 -0.148000 -4.581940 -12.140000 12.677200 # 3 
458 46 4 0.090000 -3.967210 -12.964700 12.848900 # 4 
459 46 4 0.090000 -4.148830 -11.685100 11.709600 # 4 
460 46 4 0.090000 -5.493280 -12.675700 12.451300 # 4 
461 47 1 0.312000 -10.851900 -1.115560 17.375799 # 1 
462 47 2 -0.556000 -11.581500 -1.530070 18.737000 # 2 
463 47 3 -0.148000 -11.892400 0.188141 16.815800 # 3 
464 47 4 0.090000 -12.672000 0.069996 17.526600 # 4 
465 47 4 0.090000 -12.337900 0.239207 15.797500 # 4 
466 47 4 0.090000 -11.376200 1.022490 17.165800 # 4 
467 47 3 -0.148000 -9.322150 -0.155867 17.486300 # 3 
468 47 4 0.090000 -9.531050 0.778735 18.115299 # 4 
469 47 4 0.090000 -8.893120 0.083019 16.473801 # 4 
470 47 4 0.090000 -8.579160 -0.690352 17.916800 # 4 
471 48 1 0.312000 1.115850 -7.814670 15.772700 # 1 
472 48 2 -0.556000 0.928257 -7.846880 14.291200 # 2 
473 48 3 -0.148000 2.341100 -9.050400 16.164801 # 3 
474 48 4 0.090000 2.435340 -9.009200 17.202999 # 4 
475 48 4 0.090000 3.357960 -8.837680 15.773700 # 4 
476 48 4 0.090000 2.094520 -10.114600 15.940000 # 4 
477 48 3 -0.148000 -0.245955 -8.460940 16.603100 # 3 
478 48 4 0.090000 -0.818683 -7.776640 17.333300 # 4 
479 48 4 0.090000 -0.015171 -9.306570 17.238600 # 4 
480 48 4 0.090000 -0.847849 -8.950960 15.814300 # 4 
481 49 1 0.312000 -5.295600 9.601020 3.537170 # 1 
482 49 2 -0.556000 -4.346690 8.445050 3.270640 # 2 
483 49 3 -0.148000 -6.598710 9.572910 2.338000 # 3 
484 49 4 0.090000 -6.293600 9.133120 1.403503 # 4 
485 49 4 0.090000 -7.319000 8.932150 2.790110 # 4 
486 49 4 0.090000 -7.069340 10.524000 2.185440 # 4 
487 49 3 -0.148000 -4.623120 11.053400 2.977620 # 3 
488 49 4 0.090000 -3.646930 10.895200 2.363260 # 4 
489 49 4 0.090000 -5.305870 11.656500 2.409540 # 4 
490 49 4 0.090000 -4.438480 11.595000 3.975230 # 4 
491 50 1 0.312000 -5.649610 6.821090 59.405701 # 1 
492 50 2 -0.556000 -6.687420 5.907220 59.949501 # 2 
493 50 3 -0.148000 -4.373630 5.718780 59.534500 # 3 
494 50 4 0.090000 -4.268690 5.120550 60.532299 # 4 
495 50 4 0.090000 -3.635770 6.431850 59.316399 # 4 
496 50 4 0.090000 -4.399430 5.099770 58.616199 # 4 
497 50 3 -0.148000 -5.599800 6.583040 57.685902 # 3 
498 50 4 0.090000 -5.734740 5.576660 57.338902 # 4 
499 50 4 0.090000 -6.427130 7.162560 57.266399 # 4 
500 50 4 0.090000 -4.709880 6.910660 57.296001 # 4 
501 51 1 0.312000 -6.813450 -5.300420 17.061800 # 1 
502 51 2 -0.556000 -5.967910 -4.191460 16.476700 # 2 
503 51 3 -0.148000 -5.891970 -6.762810 17.242901 # 3 
504 51 4 0.090000 -4.865650 -6.502610 17.015301 # 4 
505 51 4 0.090000 -6.012440 -7.345070 18.176901 # 4 
506 51 4 0.090000 -6.023460 -7.360020 16.399700 # 4 
507 51 3 -0.148000 -7.928150 -5.786400 15.782900 # 3 
508 51 4 0.090000 -7.467340 -6.442900 15.067600 # 4 
509 51 4 0.090000 -8.682960 -6.457540 16.264299 # 4 
510 51 4 0.090000 -8.565650 -5.036550 15.306000 # 4 
511 52 1 0.312000 -5.035990 2.554020 37.753799 # 1 
512 52 2 -0.556000 -4.840800 4.073540 37.666698 # 2 
513 52 3 -0.148000 -3.842770 1.823790 38.870899 # 3 
514 52 4 0.090000 -4.246100 1.709460 39.940102 # 4 
515 52 4 0.090000 -2.858660 2.439540 38.914200 # 4 
516 52 4 0.090000 -3.607560 0.802042 38.592201 # 4 
517 52 3 -0.148000 -6.282490 2.199000 39.007599 # 3 
518 52 4 0.090000 -5.928430 2.642390 39.966400 # 4 
519 52 4 0.090000 -6.394580 1.142890 39.335400 # 4 
520 52 4 0.090000 -7.283640 2.613000 38.760899 # 4 
521 53 1 0.312000 -10.571800 11.563900 60.997299 # 1 
522 53 2 -0.556000 -9.341440 11.557500 60.070000 # 2 
523 53 3 -0.148000 -10.046400 10.369100 62.169899 # 3 
524 53 4 0.090000 -10.861000 10.164200 62.877399 # 4 
525 53 4 0.090000 -9.917690 9.511190 61.574402 # 4 
526 53 4 0.090000 -9.145210 10.568500 62.696800 # 4 
527 53 3 -0.148000 -10.268300 12.787200 62.257301 # 3 
528 53 4 0.090000 -10.464600 12.247600 63.180099 # 4 
529 53 4 0.090000 -11.085800 13.448400 62.137798 # 4 
530 53 4 0.090000 -9.270900 13.211200 62.382099 # 4 
531 54 1 0.312000 1.660860 -0.272291 8.418610 # 1 
532 54 2 -0.556000 1.705340 -0.927421 9.762100 # 2 
533 54 3 -0.148000 0.731942 1.155040 8.535510 # 3 
534 54 4 0.090000 1.061740 1.741480 7.722100 # 4 
535 54 4 0.090000 0.992911 1.642440 9.490860 # 4 
536 54 4 0.090000 -0.436200 0.934116 8.531620 # 4 
537 54 3 -0.148000 3.193180 0.636805 8.514860 # 3 
538 54 4 0.090000 3.507440 0.875813 7.491640 # 4 
539 54 4 0.090000 3.117500 1.587430 8.913790 # 4 
540 54 4 0.090000 4.020650 0.016416 8.905260 # 4 
541 55 1 0.312000 -3.589310 -9.893450 59.959499 # 1 
542 55 2 -0.556000 -4.960010 -9.498690 60.414501 # 2 
543 55 3 -0.148000 -3.030700 -8.460200 59.154499 # 3 
544 55 4 0.090000 -3.831480 -8.120580 58.502399 # 4 
545 55 4 0.090000 -2.156370 -8.525190 58.453300 # 4 
546 55 4 0.090000 -2.747150 -7.639510 59.899799 # 4 
547 55 3 -0.148000 -2.548440 -9.321420 61.262699 # 3 
548 55 4 0.090000 -1.538390 -8.748340 60.973202 # 4 
549 55 4 0.090000 -2.188510 -10.091300 61.894901 # 4 
550 55 4 0.090000 -3.055050 -8.631440 61.933498 # 4 
551 56 1 0.312000 -7.398980 -2.850590 68.188797 # 1 
552 56 2 -0.556000 -6.320240 -2.454820 69.120697 # 2 
553 56 3 -0.148000 -7.766320 -4.509490 68.626404 # 3 
554 56 4 0.090000 -7.817090 -5.270430 67.833199 # 4 
555 56 4 0.090000 -7.055550 -4.649710 69.420097 # 4 
556 56 4 0.090000 -8.781080 -4.464450 68.997299 # 4 
557 56 3 -0.148000 -8.909480 -2.087390 68.595200 # 3 