LAMMPS data file. CGCMM style. atom_style full generated by VMD/TopoTools v1.7 on Thu Sep 19 13:39:23 -03 2019
 8128 atoms
 4848 bonds
 8160 angles
 6144 dihedrals
 0 impropers
 8 atom types
 4 bond types
 5 angle types
 2 dihedral types
 0 improper types
 -1.843 27.65 xlo xhi
 -0.710 30.48  ylo yhi
 -231.550 308.550  zlo zhi

Pair Coeffs # lj/charmm/coul/long

1 0.35 3.564 0.35 3.564
2 0.12 3.029 0.12 3.029
3 0.078 3.635 0.078 3.635
4 0.024 2.388 0.024 2.388
5 0.10314 1.4424 0.10314 1.4424
6 0.13169 3.695 0.13169 3.695
7 0.028716 2.9347 0.028716 2.9347
8 0.0859 3.3997 0.0859 3.3997

Bond Coeffs # harmonic

1 540 1.53
2 240 1.8
3 322 1.11
4 370.8 1.606

Angle Coeffs # harmonic

1 46.1 111.3
2 79 106.75
3 34 95
4 35.5 108.4
5 139.4 90

Dihedral Coeffs # charmm

1 0.2 3 0 0
2 0.2 3 0 0

 Masses

 1 32.060001 # 1
 2 16.000000 # 2
 3 12.010000 # 3
 4 1.008000 # 4
 5 6.941000 # 5
 6 31.000000 # 6
 7 19.000000 # 7
 8 12.01000 #graphene

 Atoms # full

1 1 1 0.312000 8.476086 21.475927 51.072083 # 1 
2 1 2 -0.556000 7.505004 20.685797 51.549866 # 2 
3 1 3 -0.148000 9.019774 22.615149 51.927773 # 3 
4 1 4 0.090000 9.867220 22.927711 51.617874 # 4 
5 1 4 0.090000 8.454465 23.339184 51.910076 # 4 
6 1 4 0.090000 9.181303 22.282295 52.743710 # 4 
7 1 3 -0.148000 7.882419 22.310734 49.985344 # 3 
8 1 4 0.090000 7.195974 22.919374 50.349232 # 4 
9 1 4 0.090000 7.461455 21.669218 49.482941 # 4 
10 1 4 0.090000 8.490851 22.894239 49.507355 # 4 
11 2 1 0.312000 4.677279 5.093957 6.188718 # 1 
12 2 2 -0.556000 3.654885 5.882684 5.824947 # 2 
13 2 3 -0.148000 5.769397 6.225245 6.369523 # 3 
14 2 4 0.090000 5.933036 6.701008 5.598279 # 4 
15 2 4 0.090000 6.591049 5.807870 6.627126 # 4 
16 2 4 0.090000 5.522560 6.917549 7.034274 # 4 
17 2 3 -0.148000 5.409822 4.463369 4.976100 # 3 
18 2 4 0.090000 5.776331 5.183193 4.469751 # 4 
19 2 4 0.090000 6.186703 3.938456 5.180877 # 4 
20 2 4 0.090000 4.912243 3.837756 4.505149 # 4 
21 3 1 0.312000 1.855875 20.491173 34.905384 # 1 
22 3 2 -0.556000 1.911143 20.244431 36.131363 # 2 
23 3 3 -0.148000 2.586013 21.844139 34.819508 # 3 
24 3 4 0.090000 3.333304 21.867922 35.352695 # 4 
25 3 4 0.090000 2.090108 22.582506 35.111111 # 4 
26 3 4 0.090000 2.823355 22.070288 33.955837 # 4 
27 3 3 -0.148000 2.935714 19.600014 34.310928 # 3 
28 3 4 0.090000 2.654702 18.674246 34.427658 # 4 
29 3 4 0.090000 3.773419 19.847420 34.706684 # 4 
30 3 4 0.090000 2.979009 19.781782 33.398697 # 4 
31 4 1 0.312000 21.250694 19.038622 19.514164 # 1 
32 4 2 -0.556000 21.410898 18.437954 20.579962 # 2 
33 4 3 -0.148000 22.547537 19.885939 19.296820 # 3 
34 4 4 0.090000 22.862617 20.202595 20.103811 # 4 
35 4 4 0.090000 23.270878 19.373095 18.954920 # 4 
36 4 4 0.090000 22.487171 20.534912 18.632126 # 4 
37 4 3 -0.148000 20.398008 20.342907 19.755070 # 3 
38 4 4 0.090000 20.408901 20.959076 19.122976 # 4 
39 4 4 0.090000 20.619852 20.727360 20.594522 # 4 
40 4 4 0.090000 19.432093 20.249960 19.805729 # 4 
41 5 1 0.312000 19.242941 9.587825 3.478701 # 1 
42 5 2 -0.556000 20.377882 9.733997 4.108782 # 2 
43 5 3 -0.148000 19.396582 9.588910 2.024078 # 3 
44 5 4 0.090000 20.064205 8.939333 1.712303 # 4 
45 5 4 0.090000 19.739100 10.437802 1.708122 # 4 
46 5 4 0.090000 18.572401 9.332428 1.616791 # 4 
47 5 3 -0.148000 18.970118 8.086016 3.468655 # 3 
48 5 4 0.090000 18.370850 7.753052 2.832191 # 4 
49 5 4 0.090000 19.810816 7.637434 3.403816 # 4 
50 5 4 0.090000 18.528206 7.778355 4.223750 # 4 
51 6 1 0.312000 15.981320 26.957695 57.233639 # 1 
52 6 2 -0.556000 16.151802 26.493036 58.381042 # 2 
53 6 3 -0.148000 17.190998 26.529871 56.368584 # 3 
54 6 4 0.090000 17.032080 27.002705 55.597343 # 4 
55 6 4 0.090000 17.295242 25.567448 56.315872 # 4 
56 6 4 0.090000 18.018810 26.907372 56.639454 # 4 
57 6 3 -0.148000 14.654872 26.253733 56.690937 # 3 
58 6 4 0.090000 13.807076 26.720688 56.950150 # 4 
59 6 4 0.090000 14.638885 26.385147 55.802464 # 4 
60 6 4 0.090000 14.624362 25.314585 56.906372 # 4 
61 7 1 0.312000 9.567418 17.292810 24.334375 # 1 
62 7 2 -0.556000 8.546260 17.274023 25.125984 # 2 
63 7 3 -0.148000 9.626158 18.617868 23.614628 # 3 
64 7 4 0.090000 10.510304 18.687735 23.256344 # 4 
65 7 4 0.090000 9.591085 19.399250 24.154877 # 4 
66 7 4 0.090000 8.983682 18.599066 22.979797 # 4 
67 7 3 -0.148000 9.274273 16.336239 23.168827 # 3 
68 7 4 0.090000 8.348268 16.369003 22.813116 # 4 
69 7 4 0.090000 9.518448 15.426523 23.355192 # 4 
70 7 4 0.090000 9.977118 16.604843 22.584360 # 4 
71 8 1 0.312000 11.674447 6.524311 32.057659 # 1 
72 8 2 -0.556000 12.218044 6.529839 33.191967 # 2 
73 8 3 -0.148000 10.623197 5.384939 32.102242 # 3 
74 8 4 0.090000 10.128602 5.285123 31.376787 # 4 
75 8 4 0.090000 11.042636 4.560872 32.302906 # 4 
76 8 4 0.090000 10.002399 5.643723 32.809448 # 4 
77 8 3 -0.148000 10.583018 7.708572 32.008991 # 3 
78 8 4 0.090000 10.897017 8.587181 32.236706 # 4 
79 8 4 0.090000 9.922761 7.573705 32.566994 # 4 
80 8 4 0.090000 10.229927 7.762105 31.197540 # 4 
81 9 1 0.312000 3.773922 25.309170 12.277811 # 1 
82 9 2 -0.556000 2.830149 25.935261 11.626057 # 2 
83 9 3 -0.148000 5.197098 25.517059 11.643254 # 3 
84 9 4 0.090000 5.194334 25.220541 10.796454 # 4 
85 9 4 0.090000 5.338718 26.426283 11.553246 # 4 
86 9 4 0.090000 5.882246 25.072498 12.193534 # 4 
87 9 3 -0.148000 3.948191 26.159712 13.492652 # 3 
88 9 4 0.090000 4.207677 27.029755 13.270460 # 4 
89 9 4 0.090000 3.202662 26.261656 14.007000 # 4 
90 9 4 0.090000 4.712529 25.869005 13.988139 # 4 
91 10 1 0.312000 23.264814 21.997940 33.057045 # 1 
92 10 2 -0.556000 24.531082 21.851467 32.781635 # 2 
93 10 3 -0.148000 22.582695 22.825666 31.985037 # 3 
94 10 4 0.090000 22.788221 23.762140 31.998003 # 4 
95 10 4 0.090000 22.895590 22.532681 31.193687 # 4 
96 10 4 0.090000 21.627253 22.692736 31.960272 # 4 
97 10 3 -0.148000 22.555401 20.582718 32.727043 # 3 
98 10 4 0.090000 22.692667 20.448851 31.866228 # 4 
99 10 4 0.090000 22.868484 19.818472 33.168953 # 4 
100 10 4 0.090000 21.632669 20.624464 32.903244 # 4 
101 11 1 0.312000 5.937338 18.390394 30.617292 # 1 
102 11 2 -0.556000 4.984321 18.385805 29.702650 # 2 
103 11 3 -0.148000 5.315349 19.163301 31.705139 # 3 
104 11 4 0.090000 5.063462 20.071676 31.462059 # 4 
105 11 4 0.090000 4.517462 18.729528 32.045357 # 4 
106 11 4 0.090000 5.891892 19.153891 32.441418 # 4 
107 11 3 -0.148000 6.924276 19.524246 30.165838 # 3 
108 11 4 0.090000 6.444110 20.347490 30.033260 # 4 
109 11 4 0.090000 7.306162 19.286589 29.388557 # 4 
110 11 4 0.090000 7.652122 19.645845 30.807905 # 4 
111 12 1 0.312000 24.873102 21.571444 7.772248 # 1 
112 12 2 -0.556000 25.410606 22.440218 6.968999 # 2 
113 12 3 -0.148000 24.402430 22.347178 8.905402 # 3 
114 12 4 0.090000 24.395771 21.915983 9.742744 # 4 
115 12 4 0.090000 23.636534 22.799616 8.780263 # 4 
116 12 4 0.090000 25.009647 23.036831 9.123330 # 4 
117 12 3 -0.148000 26.090870 21.104231 8.492062 # 3 
118 12 4 0.090000 25.971218 20.610909 9.245371 # 4 
119 12 4 0.090000 26.595005 21.875608 8.796891 # 4 
120 12 4 0.090000 26.669838 20.563419 8.007314 # 4 
121 13 1 0.312000 1.460802 24.174826 4.005277 # 1 
122 13 2 -0.556000 1.413897 24.477694 5.205831 # 2 
123 13 3 -0.148000 0.525824 25.115503 3.268692 # 3 
124 13 4 0.090000 -0.098436 25.650627 3.698401 # 4 
125 13 4 0.090000 0.023365 24.608126 2.673622 # 4 
126 13 4 0.090000 1.057294 25.733496 2.795959 # 4 
127 13 3 -0.148000 2.852368 24.733179 3.423554 # 3 
128 13 4 0.090000 3.591191 24.102041 3.553241 # 4 
129 13 4 0.090000 2.776850 24.838411 2.502960 # 4 
130 13 4 0.090000 3.194909 25.575228 3.829072 # 4 
131 14 1 0.312000 8.129882 10.622056 27.580898 # 1 
132 14 2 -0.556000 9.383286 10.530255 27.198538 # 2 
133 14 3 -0.148000 7.887424 11.926213 28.417786 # 3 
134 14 4 0.090000 6.993012 11.950012 28.791407 # 4 
135 14 4 0.090000 8.567466 11.946285 29.033972 # 4 
136 14 4 0.090000 7.900329 12.734335 27.887768 # 4 
137 14 3 -0.148000 7.283343 10.816441 26.301294 # 3 
138 14 4 0.090000 6.364096 10.970747 26.535635 # 4 
139 14 4 0.090000 7.392137 10.055819 25.725906 # 4 
140 14 4 0.090000 7.539853 11.624041 25.900314 # 4 
141 15 1 0.312000 3.523850 26.150238 65.888710 # 1 
142 15 2 -0.556000 4.347266 26.316778 66.839996 # 2 
143 15 3 -0.148000 2.181695 26.858946 66.161369 # 3 
144 15 4 0.090000 1.857914 26.770332 67.015038 # 4 
145 15 4 0.090000 2.359561 27.762192 66.044319 # 4 
146 15 4 0.090000 1.585714 26.520798 65.541443 # 4 
147 15 3 -0.148000 3.927776 27.018520 64.735382 # 3 
148 15 4 0.090000 4.759926 26.753220 64.388123 # 4 
149 15 4 0.090000 3.352677 26.945631 63.971889 # 4 
150 15 4 0.090000 3.974873 27.994061 64.928513 # 4 
151 16 1 0.312000 9.746363 7.306969 68.374039 # 1 
152 16 2 -0.556000 9.564945 8.233084 67.502243 # 2 
153 16 3 -0.148000 9.358441 6.016149 67.585884 # 3 
154 16 4 0.090000 8.422904 5.826334 67.664963 # 4 
155 16 4 0.090000 9.878151 5.291496 67.902969 # 4 
156 16 4 0.090000 9.548701 6.133786 66.716583 # 4 
157 16 3 -0.148000 11.219162 6.871162 68.340591 # 3 
158 16 4 0.090000 11.401764 6.513800 67.571739 # 4 
159 16 4 0.090000 11.834858 7.620554 68.255775 # 4 
160 16 4 0.090000 11.582490 6.344916 69.018425 # 4 
161 17 1 0.312000 9.375243 19.896011 57.821140 # 1 
162 17 2 -0.556000 9.896477 18.773834 58.249084 # 2 
163 17 3 -0.148000 8.607283 20.406553 58.945110 # 3 
164 17 4 0.090000 8.415411 21.345451 58.926216 # 4 
165 17 4 0.090000 7.794558 19.978878 59.109051 # 4 
166 17 4 0.090000 9.195352 20.335806 59.681084 # 4 
167 17 3 -0.148000 8.166494 19.484877 57.027935 # 3 
168 17 4 0.090000 7.766888 18.648817 57.338207 # 4 
169 17 4 0.090000 8.433360 19.340445 56.202213 # 4 
170 17 4 0.090000 7.426645 20.080700 57.059830 # 4 
171 18 1 0.312000 17.755463 4.817403 32.084278 # 1 
172 18 2 -0.556000 17.344833 3.635886 32.578491 # 2 
173 18 3 -0.148000 19.236303 4.778985 31.569002 # 3 
174 18 4 0.090000 19.869106 4.701294 32.262394 # 4 
175 18 4 0.090000 19.360071 5.670151 31.230015 # 4 
176 18 4 0.090000 19.336664 4.131182 30.910944 # 4 
177 18 3 -0.148000 17.067913 5.027338 30.859175 # 3 
178 18 4 0.090000 17.226433 5.922192 30.549524 # 4 
179 18 4 0.090000 17.463009 4.395079 30.272089 # 4 
180 18 4 0.090000 16.143499 4.856505 30.928335 # 4 
181 19 1 0.312000 1.057157 13.775030 44.353806 # 1 
182 19 2 -0.556000 2.312099 14.225347 44.498741 # 2 
183 19 3 -0.148000 1.056825 12.192388 44.387764 # 3 
184 19 4 0.090000 1.829726 11.893505 43.915775 # 4 
185 19 4 0.090000 1.052680 11.817354 45.182285 # 4 
186 19 4 0.090000 0.301065 11.764399 44.021210 # 4 
187 19 3 -0.148000 0.280748 14.080775 45.591022 # 3 
188 19 4 0.090000 0.768415 13.695351 46.296371 # 4 
189 19 4 0.090000 -0.543722 13.604736 45.599838 # 4 
190 19 4 0.090000 0.171774 15.033398 45.715996 # 4 
191 20 1 0.312000 6.223798 21.374897 70.970222 # 1 
192 20 2 -0.556000 6.632767 21.571255 72.126282 # 2 
193 20 3 -0.148000 7.258545 21.795292 69.895195 # 3 
194 20 4 0.090000 7.796027 22.556852 70.146019 # 4 
195 20 4 0.090000 6.791719 21.909922 69.060417 # 4 
196 20 4 0.090000 7.847938 21.080675 69.712959 # 4 
197 20 3 -0.148000 5.278286 22.579683 70.616867 # 3 
198 20 4 0.090000 4.437452 22.550400 70.973511 # 4 
199 20 4 0.090000 5.614635 23.397367 71.017769 # 4 
200 20 4 0.090000 5.098960 22.599463 69.718224 # 4 
201 21 1 0.312000 10.847001 7.965006 27.945044 # 1 
202 21 2 -0.556000 10.966680 7.657739 29.126781 # 2 
203 21 3 -0.148000 11.992960 8.918655 27.531868 # 3 
204 21 4 0.090000 12.901545 8.543018 27.650570 # 4 
205 21 4 0.090000 11.934766 9.150685 26.659252 # 4 
206 21 4 0.090000 11.874013 9.788793 27.965073 # 4 
207 21 3 -0.148000 11.103511 6.740009 27.096558 # 3 
208 21 4 0.090000 10.894053 6.841626 26.236738 # 4 
209 21 4 0.090000 11.972949 6.340953 27.221365 # 4 
210 21 4 0.090000 10.520861 6.011362 27.346149 # 4 
211 22 1 0.312000 18.420101 17.677048 28.985868 # 1 
212 22 2 -0.556000 19.303667 18.410082 28.398664 # 2 
213 22 3 -0.148000 17.374756 17.446886 27.999479 # 3 
214 22 4 0.090000 17.858738 17.111490 27.290289 # 4 
215 22 4 0.090000 17.046375 18.267408 27.765995 # 4 
216 22 4 0.090000 16.710896 16.782902 28.208336 # 4 
217 22 3 -0.148000 19.027853 16.230209 29.153944 # 3 
218 22 4 0.090000 19.766111 16.220200 29.729347 # 4 
219 22 4 0.090000 18.406425 15.682863 29.581202 # 4 
220 22 4 0.090000 19.234457 15.816967 28.397047 # 4 
221 23 1 0.312000 19.222935 3.074288 39.325638 # 1 
222 23 2 -0.556000 20.251610 2.586578 39.983257 # 2 
223 23 3 -0.148000 17.885374 2.723309 40.013039 # 3 
224 23 4 0.090000 17.099463 2.881044 39.459332 # 4 
225 23 4 0.090000 17.805164 3.264365 40.716248 # 4 
226 23 4 0.090000 17.758387 1.847374 40.308525 # 4 
227 23 3 -0.148000 19.357706 4.640580 39.371101 # 3 
228 23 4 0.090000 20.204842 5.097126 39.265747 # 4 
229 23 4 0.090000 19.052683 4.970290 40.199936 # 4 
230 23 4 0.090000 18.709312 4.916605 38.773121 # 4 
231 24 1 0.312000 22.334782 8.032396 26.210197 # 1 
232 24 2 -0.556000 21.314241 8.753037 26.623449 # 2 
233 24 3 -0.148000 22.091196 7.826434 24.772469 # 3 
234 24 4 0.090000 21.459192 7.129523 24.656420 # 4 
235 24 4 0.090000 22.848661 7.478913 24.296017 # 4 
236 24 4 0.090000 21.687355 8.616585 24.416971 # 4 
237 24 3 -0.148000 23.463104 8.978918 25.999380 # 3 
238 24 4 0.090000 24.306852 8.603316 26.167963 # 4 
239 24 4 0.090000 23.375786 9.747711 26.515800 # 4 
240 24 4 0.090000 23.460688 9.153811 25.115152 # 4 
241 25 1 0.312000 7.357907 15.284255 15.466372 # 1 
242 25 2 -0.556000 6.983403 16.145868 16.339336 # 2 
243 25 3 -0.148000 8.599132 14.505483 16.003387 # 3 
244 25 4 0.090000 9.314551 15.082540 16.206135 # 4 
245 25 4 0.090000 8.877997 13.840574 15.406650 # 4 
246 25 4 0.090000 8.379057 13.971056 16.733820 # 4 
247 25 3 -0.148000 6.259454 14.188207 15.487687 # 3 
248 25 4 0.090000 6.400375 13.548998 14.842817 # 4 
249 25 4 0.090000 6.340002 13.819114 16.309759 # 4 
250 25 4 0.090000 5.439557 14.661530 15.345984 # 4 
251 26 1 0.312000 10.560614 22.973604 33.407101 # 1 
252 26 2 -0.556000 10.094084 24.164785 33.516499 # 2 
253 26 3 -0.148000 9.817331 21.998299 34.288994 # 3 
254 26 4 0.090000 9.773073 22.263796 35.142548 # 4 
255 26 4 0.090000 8.837553 21.999472 34.116772 # 4 
256 26 4 0.090000 10.142145 21.100904 34.339249 # 4 
257 26 3 -0.148000 11.898582 22.945915 34.025684 # 3 
258 26 4 0.090000 12.673889 23.285765 33.570618 # 4 
259 26 4 0.090000 12.002275 23.377699 34.824184 # 4 
260 26 4 0.090000 12.200105 22.071224 34.142170 # 4 
261 27 1 0.312000 20.455793 6.076250 50.586559 # 1 
262 27 2 -0.556000 21.185543 5.046022 50.984512 # 2 
263 27 3 -0.148000 18.979021 5.882948 50.946667 # 3 
264 27 4 0.090000 18.735773 5.006693 50.658848 # 4 
265 27 4 0.090000 18.460432 6.625651 50.603245 # 4 
266 27 4 0.090000 18.894238 5.862762 51.856106 # 4 
267 27 3 -0.148000 20.260420 6.082429 49.121441 # 3 
268 27 4 0.090000 20.216047 5.231886 48.826488 # 4 
269 27 4 0.090000 21.036108 6.497353 48.734947 # 4 
270 27 4 0.090000 19.423897 6.479745 48.898350 # 4 
271 28 1 0.312000 5.722407 13.629413 66.561607 # 1 
272 28 2 -0.556000 5.102457 12.582963 67.041084 # 2 
273 28 3 -0.148000 5.421417 15.018419 67.293167 # 3 
274 28 4 0.090000 6.238173 15.402120 67.620018 # 4 
275 28 4 0.090000 4.989567 15.687954 66.823318 # 4 
276 28 4 0.090000 4.918662 14.866776 68.027420 # 4 
277 28 3 -0.148000 5.023857 14.120532 65.305481 # 3 
278 28 4 0.090000 4.125555 13.997456 65.417816 # 4 
279 28 4 0.090000 5.255777 13.551894 64.608017 # 4 
280 28 4 0.090000 5.151190 15.018046 65.150818 # 4 
281 29 1 0.312000 17.577530 25.022705 70.935524 # 1 
282 29 2 -0.556000 18.290525 25.200592 71.944878 # 2 
283 29 3 -0.148000 18.013025 26.143002 70.057510 # 3 
284 29 4 0.090000 17.780060 27.050547 70.361214 # 4 
285 29 4 0.090000 18.980225 26.071650 70.062393 # 4 
286 29 4 0.090000 17.700802 26.121136 69.229645 # 4 
287 29 3 -0.148000 16.097153 25.491133 71.138168 # 3 
288 29 4 0.090000 15.658033 25.476788 70.335381 # 4 
289 29 4 0.090000 15.624784 24.953409 71.679420 # 4 
290 29 4 0.090000 16.060480 26.382694 71.472649 # 4 
291 30 1 0.312000 22.195724 8.688742 61.965523 # 1 
292 30 2 -0.556000 21.117401 7.918983 61.820278 # 2 
293 30 3 -0.148000 23.428701 7.708157 61.714752 # 3 
294 30 4 0.090000 24.311003 8.166016 61.808556 # 4 
295 30 4 0.090000 23.441944 7.474095 60.840832 # 4 
296 30 4 0.090000 23.395561 6.852823 62.120636 # 4 
297 30 3 -0.148000 22.318888 9.693616 60.764549 # 3 
298 30 4 0.090000 22.119604 9.353495 59.945461 # 4 
299 30 4 0.090000 23.289574 9.914981 60.702465 # 4 
300 30 4 0.090000 21.753534 10.516527 60.815773 # 4 
301 31 1 0.312000 18.865667 13.251369 27.885353 # 1 
302 31 2 -0.556000 19.547516 12.996768 26.837385 # 2 
303 31 3 -0.148000 19.041327 11.879845 28.548155 # 3 
304 31 4 0.090000 18.997463 11.128776 27.927128 # 4 
305 31 4 0.090000 18.398146 11.762678 29.197510 # 4 
306 31 4 0.090000 19.902910 11.885001 28.995199 # 4 
307 31 3 -0.148000 17.375584 13.044486 27.568602 # 3 
308 31 4 0.090000 16.844378 13.310941 28.239317 # 4 
309 31 4 0.090000 17.118919 13.694324 26.946072 # 4 
310 31 4 0.090000 17.162231 12.217523 27.217997 # 4 
311 32 1 0.312000 9.982237 6.637614 47.373383 # 1 
312 32 2 -0.556000 9.614962 7.910145 47.229492 # 2 
313 32 3 -0.148000 9.522708 5.894624 46.232323 # 3 
314 32 4 0.090000 10.110599 6.044472 45.492512 # 4 
315 32 4 0.090000 8.624625 6.039970 46.019794 # 4 
316 32 4 0.090000 9.579128 4.976048 46.403439 # 4 
317 32 3 -0.148000 8.841886 6.073500 48.242020 # 3 
318 32 4 0.090000 8.936303 5.146365 48.446247 # 4 
319 32 4 0.090000 8.885259 6.559504 49.021034 # 4 
320 32 4 0.090000 7.967010 6.250089 47.860462 # 4 
321 33 1 0.312000 22.942244 15.190485 41.768482 # 1 
322 33 2 -0.556000 23.634359 16.112745 42.317154 # 2 
323 33 3 -0.148000 22.570383 16.002840 40.561188 # 3 
324 33 4 0.090000 22.149662 15.478397 39.895668 # 4 
325 33 4 0.090000 23.342699 16.386648 40.276688 # 4 
326 33 4 0.090000 21.917488 16.613623 40.812988 # 4 
327 33 3 -0.148000 23.729122 14.208923 40.849930 # 3 
328 33 4 0.090000 23.105522 13.724504 40.346272 # 4 
329 33 4 0.090000 24.367743 14.711968 40.344395 # 4 
330 33 4 0.090000 24.235638 13.590853 41.342319 # 4 
331 34 1 0.312000 6.932629 3.985727 24.138142 # 1 
332 34 2 -0.556000 8.056585 4.526226 24.588396 # 2 
333 34 3 -0.148000 6.523745 4.834101 22.993063 # 3 
334 34 4 0.090000 5.640219 4.651770 22.648277 # 4 
335 34 4 0.090000 6.451978 5.764516 23.190474 # 4 
336 34 4 0.090000 7.061026 4.691883 22.316618 # 4 
337 34 3 -0.148000 7.425323 2.743326 23.439934 # 3 
338 34 4 0.090000 6.785259 2.295944 22.930620 # 4 
339 34 4 0.090000 8.008845 3.146524 22.856745 # 4 
340 34 4 0.090000 7.869180 2.080061 23.924328 # 4 
341 35 1 0.312000 15.804394 17.195786 14.576455 # 1 
342 35 2 -0.556000 14.593029 17.432529 14.061615 # 2 
343 35 3 -0.148000 15.418967 16.253370 15.705518 # 3 
344 35 4 0.090000 16.170847 15.826170 16.097227 # 4 
345 35 4 0.090000 14.832452 15.608006 15.297093 # 4 
346 35 4 0.090000 14.949659 16.806837 16.243664 # 4 
347 35 3 -0.148000 16.456062 16.042850 13.807719 # 3 
348 35 4 0.090000 16.702560 16.453424 13.048554 # 4 
349 35 4 0.090000 17.325890 15.772042 14.151143 # 4 
350 35 4 0.090000 15.899006 15.265014 13.631383 # 4 
351 36 1 0.312000 5.157828 20.442013 5.918358 # 1 
352 36 2 -0.556000 4.788821 19.219715 6.111087 # 2 
353 36 3 -0.148000 5.070120 21.161098 7.208299 # 3 
354 36 4 0.090000 4.505481 21.929115 7.107635 # 4 
355 36 4 0.090000 4.812587 20.548731 7.824873 # 4 
356 36 4 0.090000 5.924089 21.469894 7.379847 # 4 
357 36 3 -0.148000 3.965129 21.167591 5.275837 # 3 
358 36 4 0.090000 3.255557 21.353149 5.850794 # 4 
359 36 4 0.090000 4.328855 21.969482 4.949035 # 4 
360 36 4 0.090000 3.551173 20.680801 4.613010 # 4 
361 37 1 0.312000 16.186792 22.661777 58.012283 # 1 
362 37 2 -0.556000 16.157576 23.958191 58.410728 # 2 
363 37 3 -0.148000 14.738291 22.096848 58.219730 # 3 
364 37 4 0.090000 14.325767 22.411661 58.992111 # 4 
365 37 4 0.090000 14.255633 22.435192 57.507359 # 4 
366 37 4 0.090000 14.724551 21.188889 58.094547 # 4 
367 37 3 -0.148000 16.165432 22.675240 56.561913 # 3 
368 37 4 0.090000 16.046635 21.875021 56.086849 # 4 
369 37 4 0.090000 17.007906 23.033571 56.205006 # 4 
370 37 4 0.090000 15.455699 23.223421 56.332485 # 4 
371 38 1 0.312000 12.730832 21.107094 52.053238 # 1 
372 38 2 -0.556000 11.706463 20.213549 52.110287 # 2 
373 38 3 -0.148000 12.186595 22.253630 52.838009 # 3 
374 38 4 0.090000 13.002388 22.834688 52.959038 # 4 
375 38 4 0.090000 11.606373 22.727797 52.363285 # 4 
376 38 4 0.090000 11.785847 22.054567 53.617638 # 4 
377 38 3 -0.148000 13.820183 20.651649 52.977654 # 3 
378 38 4 0.090000 13.440344 20.236195 53.712944 # 4 
379 38 4 0.090000 14.361485 21.378841 53.222084 # 4 
380 38 4 0.090000 14.375859 20.023046 52.576492 # 4 
381 39 1 0.312000 5.715682 7.248672 42.221676 # 1 
382 39 2 -0.556000 5.158576 6.309137 41.459187 # 2 
383 39 3 -0.148000 6.494426 8.150271 41.388229 # 3 
384 39 4 0.090000 7.289256 8.501614 41.809856 # 4 
385 39 4 0.090000 5.995982 8.990910 41.261147 # 4 
386 39 4 0.090000 6.793524 7.751830 40.608849 # 4 
387 39 3 -0.148000 6.798281 6.515517 43.035786 # 3 
388 39 4 0.090000 6.452805 5.746786 43.464222 # 4 
389 39 4 0.090000 7.584825 6.241677 42.553440 # 4 
390 39 4 0.090000 7.142864 7.125450 43.678837 # 4 
391 40 1 0.312000 8.796414 9.866080 39.189621 # 1 
392 40 2 -0.556000 8.073503 10.089067 40.243359 # 2 
393 40 3 -0.148000 9.154936 11.283845 38.640045 # 3 
394 40 4 0.090000 9.605546 11.806216 39.264900 # 4 
395 40 4 0.090000 9.709659 11.199416 37.935246 # 4 
396 40 4 0.090000 8.374786 11.776801 38.415108 # 4 
397 40 3 -0.148000 7.859146 9.356851 38.179802 # 3 
398 40 4 0.090000 8.286801 9.488706 37.371342 # 4 
399 40 4 0.090000 7.020074 9.788796 38.247166 # 4 
400 40 4 0.090000 7.636765 8.441474 38.235046 # 4 
401 41 1 0.312000 10.584989 17.316580 3.025678 # 1 
402 41 2 -0.556000 11.015367 18.280544 3.791461 # 2 
403 41 3 -0.148000 9.203446 17.791298 2.553604 # 3 
404 41 4 0.090000 9.028212 17.101147 1.986183 # 4 
405 41 4 0.090000 8.526284 17.832794 3.220661 # 4 
406 41 4 0.090000 9.210135 18.652401 2.182236 # 4 
407 41 3 -0.148000 11.228376 17.454958 1.719055 # 3 
408 41 4 0.090000 12.174986 17.574827 1.837296 # 4 
409 41 4 0.090000 10.880304 18.120787 1.218491 # 4 
410 41 4 0.090000 11.208201 16.614834 1.237770 # 4 
411 42 1 0.312000 12.440050 26.681618 15.788486 # 1 
412 42 2 -0.556000 13.595199 26.672363 15.211232 # 2 
413 42 3 -0.148000 12.804623 26.825428 17.167597 # 3 
414 42 4 0.090000 12.818342 25.978262 17.545462 # 4 
415 42 4 0.090000 12.093220 27.308453 17.571180 # 4 
416 42 4 0.090000 13.632023 27.285069 17.215677 # 4 
417 42 3 -0.148000 11.976774 28.185577 15.682937 # 3 
418 42 4 0.090000 10.962992 28.203045 15.701933 # 4 
419 42 4 0.090000 12.244667 28.682863 16.360479 # 4 
420 42 4 0.090000 12.344092 28.700977 14.995977 # 4 
421 43 1 0.312000 11.094982 19.373306 38.703129 # 1 
422 43 2 -0.556000 10.869605 20.119009 39.688385 # 2 
423 43 3 -0.148000 9.744030 18.666294 38.297493 # 3 
424 43 4 0.090000 9.089108 19.361807 38.110680 # 4 
425 43 4 0.090000 9.771769 18.107944 37.613735 # 4 
426 43 4 0.090000 9.479627 18.158640 38.960773 # 4 
427 43 3 -0.148000 11.872542 18.076511 39.072731 # 3 
428 43 4 0.090000 11.579518 17.665833 39.909534 # 4 
429 43 4 0.090000 12.791694 18.284445 39.214714 # 4 
430 43 4 0.090000 11.783343 17.436792 38.426964 # 4 
431 44 1 0.312000 17.504684 14.825869 6.782399 # 1 
432 44 2 -0.556000 17.290123 15.772479 5.938641 # 2 
433 44 3 -0.148000 18.628830 15.391190 7.650174 # 3 
434 44 4 0.090000 18.440918 15.126007 8.479066 # 4 
435 44 4 0.090000 19.532080 15.165156 7.485281 # 4 
436 44 4 0.090000 18.552204 16.394918 7.601592 # 4 
437 44 3 -0.148000 16.295275 15.083424 7.691622 # 3 
438 44 4 0.090000 15.345556 14.964883 7.361983 # 4 
439 44 4 0.090000 16.319918 15.956878 8.110825 # 4 
440 44 4 0.090000 16.271816 14.438965 8.341017 # 4 
441 45 1 0.312000 14.832224 8.979048 10.874813 # 1 
442 45 2 -0.556000 14.009252 9.134552 9.914879 # 2 
443 45 3 -0.148000 14.860675 7.508625 11.309832 # 3 
444 45 4 0.090000 14.179732 7.209844 11.873765 # 4 
445 45 4 0.090000 15.004834 6.897688 10.599563 # 4 
446 45 4 0.090000 15.743196 7.367721 11.653803 # 4 
447 45 3 -0.148000 16.309673 8.965900 10.366973 # 3 
448 45 4 0.090000 16.964130 8.967399 11.018857 # 4 
449 45 4 0.090000 16.482981 9.750231 9.845584 # 4 
450 45 4 0.090000 16.466145 8.161066 9.888666 # 4 
451 46 1 0.312000 14.968198 26.653385 22.012444 # 1 
452 46 2 -0.556000 14.814981 26.394468 20.808699 # 2 
453 46 3 -0.148000 13.568327 26.803843 22.738184 # 3 
454 46 4 0.090000 13.264679 27.710377 22.643635 # 4 
455 46 4 0.090000 13.677297 26.705124 23.637802 # 4 
456 46 4 0.090000 12.911706 26.162327 22.470779 # 4 
457 46 3 -0.148000 15.279684 25.243261 22.609821 # 3 
458 46 4 0.090000 15.306019 25.314022 23.547432 # 4 
459 46 4 0.090000 16.066446 24.865080 22.276073 # 4 
460 46 4 0.090000 14.514159 24.618509 22.537214 # 4 
461 47 1 0.312000 12.112506 15.055574 23.098278 # 1 
462 47 2 -0.556000 11.695655 15.846528 22.150183 # 2 
463 47 3 -0.148000 12.202184 13.611012 22.505892 # 3 
464 47 4 0.090000 12.419830 13.652745 21.609129 # 4 
465 47 4 0.090000 11.414805 13.118001 22.704498 # 4 
466 47 4 0.090000 12.956342 13.184449 22.819422 # 4 
467 47 3 -0.148000 13.538436 15.441092 23.528265 # 3 
468 47 4 0.090000 13.541812 16.375174 23.806047 # 4 
469 47 4 0.090000 14.271220 15.342052 22.930010 # 4 
470 47 4 0.090000 13.875307 14.868886 24.222073 # 4 
471 48 1 0.312000 19.926517 5.991827 68.990219 # 1 
472 48 2 -0.556000 21.100479 6.679444 69.065376 # 2 
473 48 3 -0.148000 19.969648 4.966561 67.875076 # 3 
474 48 4 0.090000 20.618925 5.258663 67.304474 # 4 
475 48 4 0.090000 19.084347 4.918591 67.554642 # 4 
476 48 4 0.090000 20.256752 4.132222 68.183281 # 4 
477 48 3 -0.148000 18.798634 6.982260 68.505707 # 3 
478 48 4 0.090000 19.341061 7.550541 68.011139 # 4 
479 48 4 0.090000 18.404427 7.462879 69.173904 # 4 
480 48 4 0.090000 18.111567 6.500722 68.010643 # 4 
481 49 1 0.312000 6.296238 22.774330 9.540148 # 1 
482 49 2 -0.556000 5.521418 22.324989 10.458311 # 2 
483 49 3 -0.148000 7.570673 21.902966 9.432610 # 3 
484 49 4 0.090000 8.130520 22.078617 8.712178 # 4 
485 49 4 0.090000 8.166915 21.838833 10.150100 # 4 
486 49 4 0.090000 7.325200 21.012020 9.303136 # 4 
487 49 3 -0.148000 7.089013 24.034634 9.918734 # 3 
488 49 4 0.090000 7.998404 24.164843 9.570127 # 4 
489 49 4 0.090000 6.528148 24.696411 9.715737 # 4 
490 49 4 0.090000 7.249882 24.056057 10.842117 # 4 
491 50 1 0.312000 3.425644 11.878742 32.728863 # 1 
492 50 2 -0.556000 3.026742 12.914284 32.042706 # 2 
493 50 3 -0.148000 4.966283 11.881715 32.730850 # 3 
494 50 4 0.090000 5.278250 11.908100 31.938869 # 4 
495 50 4 0.090000 5.267929 11.110917 33.190575 # 4 
496 50 4 0.090000 5.348050 12.692548 33.112984 # 4 
497 50 3 -0.148000 3.435353 12.275422 34.114735 # 3 
498 50 4 0.090000 2.609348 11.972872 34.510525 # 4 
499 50 4 0.090000 4.048062 11.822571 34.674706 # 4 
500 50 4 0.090000 3.600254 13.219063 34.287586 # 4 
501 51 1 0.312000 22.067621 24.664118 68.769218 # 1 
502 51 2 -0.556000 22.041277 24.582914 70.015739 # 2 
503 51 3 -0.148000 21.211761 23.518274 68.115929 # 3 
504 51 4 0.090000 21.246370 23.647476 67.202637 # 4 
505 51 4 0.090000 21.559074 22.654303 68.351837 # 4 
506 51 4 0.090000 20.280216 23.599087 68.395424 # 4 
507 51 3 -0.148000 23.548340 24.240526 68.453171 # 3 
508 51 4 0.090000 24.252356 24.912785 68.677483 # 4 
509 51 4 0.090000 23.902737 23.402931 68.800247 # 4 
510 51 4 0.090000 23.691498 24.063456 67.592262 # 4 
511 52 1 0.312000 1.599255 11.231807 41.524521 # 1 
512 52 2 -0.556000 0.971039 10.289041 42.170994 # 2 
513 52 3 -0.148000 3.120517 11.036843 41.824520 # 3 
514 52 4 0.090000 3.360928 10.145338 41.746517 # 4 
515 52 4 0.090000 3.211637 11.464747 42.592930 # 4 
516 52 4 0.090000 3.646765 11.553768 41.249001 # 4 
517 52 3 -0.148000 1.486525 10.884679 40.097439 # 3 
518 52 4 0.090000 1.557875 11.703267 39.661911 # 4 
519 52 4 0.090000 0.702221 10.448134 39.964985 # 4 
520 52 4 0.090000 2.238183 10.301242 39.856945 # 4 
521 53 1 0.312000 13.401999 17.204037 63.511623 # 1 
522 53 2 -0.556000 13.019238 17.961445 64.476410 # 2 
523 53 3 -0.148000 12.051056 16.952225 62.761513 # 3 
524 53 4 0.090000 11.427046 16.423655 63.264023 # 4 
525 53 4 0.090000 11.587782 17.804798 62.512131 # 4 
526 53 4 0.090000 12.096868 16.366562 62.066952 # 4 
527 53 3 -0.148000 14.065192 18.198221 62.514980 # 3 
528 53 4 0.090000 13.400404 18.923756 62.279434 # 4 
529 53 4 0.090000 14.287844 17.734745 61.751087 # 4 
530 53 4 0.090000 14.836616 18.647392 62.847767 # 4 
531 54 1 0.312000 14.059223 14.678131 18.227411 # 1 
532 54 2 -0.556000 13.662764 15.229470 17.177013 # 2 
533 54 3 -0.148000 15.164245 15.510730 18.825962 # 3 
534 54 4 0.090000 15.614293 15.058302 19.492725 # 4 
535 54 4 0.090000 14.793224 16.331219 19.137041 # 4 
536 54 4 0.090000 15.882444 15.655359 18.227489 # 4 
537 54 3 -0.148000 12.886269 14.894863 19.159117 # 3 
538 54 4 0.090000 12.570420 15.820306 19.289671 # 4 
539 54 4 0.090000 12.062023 14.468979 18.975197 # 4 
540 54 4 0.090000 13.110584 14.600577 19.987116 # 4 
541 55 1 0.312000 16.374142 15.714169 64.324814 # 1 
542 55 2 -0.556000 15.148796 15.315309 64.501175 # 2 
543 55 3 -0.148000 17.211245 14.459063 64.707214 # 3 
544 55 4 0.090000 18.178516 14.546583 64.719009 # 4 
545 55 4 0.090000 17.015553 13.717115 64.191734 # 4 
546 55 4 0.090000 16.995073 14.232248 65.555634 # 4 
547 55 3 -0.148000 16.672054 15.671454 62.878342 # 3 
548 55 4 0.090000 15.959652 16.027603 62.331623 # 4 
549 55 4 0.090000 16.922037 14.725549 62.695492 # 4 
550 55 4 0.090000 17.464783 16.204796 62.776085 # 4 
551 56 1 0.312000 20.817671 23.062054 9.684156 # 1 
552 56 2 -0.556000 21.453096 24.230007 9.680709 # 2 
553 56 3 -0.148000 20.862745 22.262920 10.965493 # 3 
554 56 4 0.090000 20.376635 21.417458 10.915382 # 4 
555 56 4 0.090000 21.723858 21.969091 11.097386 # 4 
556 56 4 0.090000 20.491762 22.729162 11.644262 # 4 
557 56 3 -0.148000 19.289528 23.198133 9.405862 # 3 